15
int4    Gibbs Energy (298 K): -1818.487045
O          2.77309        1.03808       -0.24457
O         -1.75014       -0.12568        1.62329
O          1.09236       -2.04199        0.51636
O         -1.30927       -0.63792       -1.52429
O         -0.34417        0.08441        1.19566
O         -2.56129        0.92594        1.20130
O          1.58548       -1.62788       -0.77241
O         -1.16934       -1.90498       -0.83649
V          0.10551       -0.70561       -0.37325
K         -3.54876       -1.07384       -0.09803
K          3.57384       -1.05339        0.83198
K         -0.93239        2.69949        0.19194
C          1.75800        1.64364       -0.65312
O          1.52486        2.86658       -0.66361
O          0.69146        0.86020       -1.13130
