12
A3VO8      Gibbs Energy (298 K): -1629.940146
O         -0.63118       -0.55960        2.12179
O         -1.09336        1.29357       -0.67470
O         -0.66482       -1.28813       -1.10220
O          1.73505        0.27002        0.76278
O         -1.76075       -0.65580        1.47670
O         -0.76258        1.74003        0.66791
O          0.07673       -2.01831       -0.10508
O          1.57372        0.34033       -0.69415
V         -0.11165       -0.07833        0.23247
K         -3.11814       -0.39526       -0.74506
K          2.59916       -1.96399       -0.30209
K          1.29716        2.82372       -0.26712
