15
int1       Gibbs Energy (298 K): -1818.497306
O          0.68612        0.57398        0.99327
O          0.12423       -1.40339       -1.12278
O         -1.41280        0.72625       -0.95882
O         -1.71751       -1.30133        1.75883
O          2.02259        0.07991        0.86951
O          0.25988       -2.13804        0.10764
O         -1.83593        1.14239        0.37734
O         -2.38622       -1.62249        0.67690
V         -0.64914       -0.47420        0.26315
K         -3.90597        0.01055       -0.70100
K          0.09996        2.88627       -0.11265
K          2.74856       -2.00124       -0.60506
C          2.89981        0.96148        0.15684
O          2.53152        2.12255       -0.05815
O          3.93095        0.33537       -0.14849
