15
int5       Gibbs Energy (298 K): -1818.569650
O         -0.75962        0.79652        1.40868
O          1.47951       -1.88056        0.25564
O         -1.12172       -0.67696       -1.02023
O         -3.98666        0.52583        0.63638
O          0.55035        2.93180       -0.93738
O          1.08854       -1.23633        1.49742
O         -1.43467       -1.49381        0.14596
O         -3.86009       -0.36187        1.44021
V         -0.04347       -0.28377        0.49819
K         -0.09361       -3.10850       -1.35512
K         -1.84278        2.06375       -0.79339
K          3.35975       -0.01125        0.62455
C          1.43859        2.12891       -0.57954
O          1.07092        0.78136       -0.50608
O          2.63899        2.34118       -0.29884
