2
O2         Gibbs Energy (298 K): -150.298154
O          0.00000        0.00000        0.60289
O          0.00000        0.00000       -0.60289
