3
CO2  Gibbs Energy (298 K): -188.531764
C          0.00000        0.00000        0.00000
O          0.00000        0.00000        1.16440
O          0.00000        0.00000       -1.16440
